<LesHouchesEvents version="3.0">
<header>
<slha>
#===========================================================
# Define DM particle: Quantum numbers and mass. 
#===========================================================
Block QNUMBERS 5000521  # ~xd 
        1 0  # 3 times electric charge
        2 2  # number of spin states (2S+1)
        3 1  # colour rep (1: singlet, 3: triplet, 8: octet)
        4 1  # Particle/Antiparticle distinction (0=own anti)
Block mass
  52      2000.0
  5000521 2.000000e+02 # MXd  
</slha>
</header>
<init>
52 52 2.000001e+03 2.000001e+03 0 0 247000 247000 -4 1
1.797500e+00 8.128300e-03 1.797500e+00 1995
<generator name='MadGraph5_aMC@NLO' version='2.9.9'>please cite 1405.0301 </generator>
</init>
<event>
 4   1995 +1.7975000e+00 4.00000100e+01 7.81860800e-03 1.35328700e-01
  5000521 -1    0    0    0    0 +0.0000000000e+00 +0.0000000000e+00 +1.7320509698e-00 2.0000007500e+03 2.0000000000e+03 0.0000e+00 1.0000e+00
 -5000521 -1    0    0    0    0 -0.0000000000e+00 -0.0000000000e+00 -1.7320509698e-00 2.0000007500e+03 2.0000000000e+03 0.0000e+00 -1.0000e+00
      -11  1    1    2    0    0 -1.0421502201e+03 +1.7068389012e+03 -2.5037600057e+01 2.0000007500e+03 5.1100000000e-04 0.0000e+00 -1.0000e+00
       11  1    1    2    0    0 +1.0421502201e+03 -1.7068389012e+03 +2.5037600057e+01 2.0000007500e+03 5.1100000000e-04 0.0000e+00 1.0000e+00
</event>
<event>
 4   1995 +1.7975000e+00 4.00000100e+01 7.81860800e-03 1.35328700e-01
  5000521 -1    0    0    0    0 +0.0000000000e+00 +0.0000000000e+00 +1.7320509698e-00 2.0000007500e+03 2.0000000000e+03 0.0000e+00 -1.0000e+00
 -5000521 -1    0    0    0    0 -0.0000000000e+00 -0.0000000000e+00 -1.7320509698e-00 2.0000007500e+03 2.0000000000e+03 0.0000e+00 1.0000e+00
      -11  1    1    2    0    0 +3.9604982627e+02 +1.7852827705e+03 +8.0988453612e+02 2.0000007500e+03 5.1100000000e-04 0.0000e+00 -1.0000e+00
       11  1    1    2    0    0 -3.9604982627e+02 -1.7852827705e+03 -8.0988453612e+02 2.0000007500e+03 5.1100000000e-04 0.0000e+00 1.0000e+00
</event>
<event>
 4   1995 +1.7975000e+00 4.00000100e+01 7.81860800e-03 1.35328700e-01
  5000521 -1    0    0    0    0 +0.0000000000e+00 +0.0000000000e+00 +1.7320509698e-00 2.0000007500e+03 2.0000000000e+03 0.0000e+00 -1.0000e+00
 -5000521 -1    0    0    0    0 -0.0000000000e+00 -0.0000000000e+00 -1.7320509698e-00 2.0000007500e+03 2.0000000000e+03 0.0000e+00 -1.0000e+00
      -11  1    1    2    0    0 -1.7346852515e+03 +9.4901647700e+02 +3.0039607513e+02 2.0000007500e+03 5.1100000000e-04 0.0000e+00 -1.0000e+00
       11  1    1    2    0    0 +1.7346852515e+03 -9.4901647700e+02 -3.0039607513e+02 2.0000007500e+03 5.1100000000e-04 0.0000e+00 1.0000e+00
</event>
<event>
 4   1995 +1.7975000e+00 4.00000100e+01 7.81860800e-03 1.35328700e-01
  5000521 -1    0    0    0    0 +0.0000000000e+00 +0.0000000000e+00 +1.7320509698e-00 2.0000007500e+03 2.0000000000e+03 0.0000e+00 1.0000e+00
 -5000521 -1    0    0    0    0 -0.0000000000e+00 -0.0000000000e+00 -1.7320509698e-00 2.0000007500e+03 2.0000000000e+03 0.0000e+00 1.0000e+00
      -11  1    1    2    0    0 +1.2076189012e+03 -1.2265255976e+03 +1.0184765807e+03 2.0000007500e+03 5.1100000000e-04 0.0000e+00 -1.0000e+00
       11  1    1    2    0    0 -1.2076189012e+03 +1.2265255976e+03 -1.0184765807e+03 2.0000007500e+03 5.1100000000e-04 0.0000e+00 1.0000e+00
</event>
<event>
 4   1995 +1.7975000e+00 4.00000100e+01 7.81860800e-03 1.35328700e-01
  5000521 -1    0    0    0    0 +0.0000000000e+00 +0.0000000000e+00 +1.7320509698e-00 2.0000007500e+03 2.0000000000e+03 0.0000e+00 1.0000e+00
 -5000521 -1    0    0    0    0 -0.0000000000e+00 -0.0000000000e+00 -1.7320509698e-00 2.0000007500e+03 2.0000000000e+03 0.0000e+00 -1.0000e+00
      -11  1    1    2    0    0 -1.0363367520e+03 -1.0166711185e+03 -1.3756412943e+03 2.0000007500e+03 5.1100000000e-04 0.0000e+00 -1.0000e+00
       11  1    1    2    0    0 +1.0363367520e+03 +1.0166711185e+03 +1.3756412943e+03 2.0000007500e+03 5.1100000000e-04 0.0000e+00 1.0000e+00
</event>
<event>
 4   1995 +1.7975000e+00 4.00000100e+01 7.81860800e-03 1.35328700e-01
  5000521 -1    0    0    0    0 +0.0000000000e+00 +0.0000000000e+00 +1.7320509698e-00 2.0000007500e+03 2.0000000000e+03 0.0000e+00 -1.0000e+00
 -5000521 -1    0    0    0    0 -0.0000000000e+00 -0.0000000000e+00 -1.7320509698e-00 2.0000007500e+03 2.0000000000e+03 0.0000e+00 1.0000e+00
      -11  1    1    2    0    0 +2.4082157005e+02 -4.0161383004e+01 +1.9850428288e+03 2.0000007500e+03 5.1100000000e-04 0.0000e+00 -1.0000e+00
       11  1    1    2    0    0 -2.4082157005e+02 +4.0161383004e+01 -1.9850428288e+03 2.0000007500e+03 5.1100000000e-04 0.0000e+00 1.0000e+00
</event>
<event>
 4   1995 +1.7975000e+00 4.00000100e+01 7.81860800e-03 1.35328700e-01
  5000521 -1    0    0    0    0 +0.0000000000e+00 +0.0000000000e+00 +1.7320509698e-00 2.0000007500e+03 2.0000000000e+03 0.0000e+00 1.0000e+00
 -5000521 -1    0    0    0    0 -0.0000000000e+00 -0.0000000000e+00 -1.7320509698e-00 2.0000007500e+03 2.0000000000e+03 0.0000e+00 -1.0000e+00
      -11  1    1    2    0    0 -1.5266942400e+03 +1.2911159470e+03 -4.7194346466e+01 2.0000007500e+03 5.1100000000e-04 0.0000e+00 1.0000e+00
       11  1    1    2    0    0 +1.5266942400e+03 -1.2911159470e+03 +4.7194346466e+01 2.0000007500e+03 5.1100000000e-04 0.0000e+00 -1.0000e+00
</event>
<event>
 4   1995 +1.7975000e+00 4.00000100e+01 7.81860800e-03 1.35328700e-01
  5000521 -1    0    0    0    0 +0.0000000000e+00 +0.0000000000e+00 +1.7320509698e-00 2.0000007500e+03 2.0000000000e+03 0.0000e+00 -1.0000e+00
 -5000521 -1    0    0    0    0 -0.0000000000e+00 -0.0000000000e+00 -1.7320509698e-00 2.0000007500e+03 2.0000000000e+03 0.0000e+00 1.0000e+00
      -11  1    1    2    0    0 -1.2978852354e+03 +7.6073801874e+02 -1.3178674364e+03 2.0000007500e+03 5.1100000000e-04 0.0000e+00 1.0000e+00
       11  1    1    2    0    0 +1.2978852354e+03 -7.6073801874e+02 +1.3178674364e+03 2.0000007500e+03 5.1100000000e-04 0.0000e+00 -1.0000e+00
</event>
<event>
 4   1995 +1.7975000e+00 4.00000100e+01 7.81860800e-03 1.35328700e-01
  5000521 -1    0    0    0    0 +0.0000000000e+00 +0.0000000000e+00 +1.7320509698e-00 2.0000007500e+03 2.0000000000e+03 0.0000e+00 1.0000e+00
 -5000521 -1    0    0    0    0 -0.0000000000e+00 -0.0000000000e+00 -1.7320509698e-00 2.0000007500e+03 2.0000000000e+03 0.0000e+00 -1.0000e+00
      -11  1    1    2    0    0 +1.3935826629e+03 +5.8326561076e+02 -1.3106225950e+03 2.0000007500e+03 5.1100000000e-04 0.0000e+00 1.0000e+00
       11  1    1    2    0    0 -1.3935826629e+03 -5.8326561076e+02 +1.3106225950e+03 2.0000007500e+03 5.1100000000e-04 0.0000e+00 -1.0000e+00
</event>
<event>
 4   1995 +1.7975000e+00 4.00000100e+01 7.81860800e-03 1.35328700e-01
  5000521 -1    0    0    0    0 +0.0000000000e+00 +0.0000000000e+00 +1.7320509698e-00 2.0000007500e+03 2.0000000000e+03 0.0000e+00 1.0000e+00
 -5000521 -1    0    0    0    0 -0.0000000000e+00 -0.0000000000e+00 -1.7320509698e-00 2.0000007500e+03 2.0000000000e+03 0.0000e+00 1.0000e+00
      -11  1    1    2    0    0 +3.9041672539e+02 -1.1475032918e+03 +1.5908532217e+03 2.0000007500e+03 5.1100000000e-04 0.0000e+00 1.0000e+00
       11  1    1    2    0    0 -3.9041672539e+02 +1.1475032918e+03 -1.5908532217e+03 2.0000007500e+03 5.1100000000e-04 0.0000e+00 -1.0000e+00
</event>
<event>
 4   1995 +1.7975000e+00 4.00000100e+01 7.81860800e-03 1.35328700e-01
  5000521 -1    0    0    0    0 +0.0000000000e+00 +0.0000000000e+00 +1.7320509698e-00 2.0000007500e+03 2.0000000000e+03 0.0000e+00 1.0000e+00
 -5000521 -1    0    0    0    0 -0.0000000000e+00 -0.0000000000e+00 -1.7320509698e-00 2.0000007500e+03 2.0000000000e+03 0.0000e+00 -1.0000e+00
      -11  1    1    2    0    0 -5.1016456187e+02 +1.0922362451e+03 -1.5958556019e+03 2.0000007500e+03 5.1100000000e-04 0.0000e+00 -1.0000e+00
       11  1    1    2    0    0 +5.1016456187e+02 -1.0922362451e+03 +1.5958556019e+03 2.0000007500e+03 5.1100000000e-04 0.0000e+00 1.0000e+00
</event>
<event>
 4   1995 +1.7975000e+00 4.00000100e+01 7.81860800e-03 1.35328700e-01
  5000521 -1    0    0    0    0 +0.0000000000e+00 +0.0000000000e+00 +1.7320509698e-00 2.0000007500e+03 2.0000000000e+03 0.0000e+00 -1.0000e+00
 -5000521 -1    0    0    0    0 -0.0000000000e+00 -0.0000000000e+00 -1.7320509698e-00 2.0000007500e+03 2.0000000000e+03 0.0000e+00 1.0000e+00
      -11  1    1    2    0    0 -3.0098809476e+02 -1.8825158314e+03 -6.0460177697e+02 2.0000007500e+03 5.1100000000e-04 0.0000e+00 -1.0000e+00
       11  1    1    2    0    0 +3.0098809476e+02 +1.8825158314e+03 +6.0460177697e+02 2.0000007500e+03 5.1100000000e-04 0.0000e+00 1.0000e+00
</event>
<event>
 4   1995 +1.7975000e+00 4.00000100e+01 7.81860800e-03 1.35328700e-01
  5000521 -1    0    0    0    0 +0.0000000000e+00 +0.0000000000e+00 +1.7320509698e-00 2.0000007500e+03 2.0000000000e+03 0.0000e+00 1.0000e+00
 -5000521 -1    0    0    0    0 -0.0000000000e+00 -0.0000000000e+00 -1.7320509698e-00 2.0000007500e+03 2.0000000000e+03 0.0000e+00 -1.0000e+00
      -11  1    1    2    0    0 -1.1854104705e+03 -2.3075408952e+02 -1.5942263214e+03 2.0000007500e+03 5.1100000000e-04 0.0000e+00 -1.0000e+00
       11  1    1    2    0    0 +1.1854104705e+03 +2.3075408952e+02 +1.5942263214e+03 2.0000007500e+03 5.1100000000e-04 0.0000e+00 1.0000e+00
</event>
<event>
 4   1995 +1.7975000e+00 4.00000100e+01 7.81860800e-03 1.35328700e-01
  5000521 -1    0    0    0    0 +0.0000000000e+00 +0.0000000000e+00 +1.7320509698e+00 2.0000007500e+03 2.0000000000e+03 0.0000e+00 -1.0000e+00
 -5000521 -1    0    0    0    0 -0.0000000000e+00 -0.0000000000e+00 -1.7320509698e+00 2.0000007500e+03 2.0000000000e+03 0.0000e+00 1.0000e+00
      -11  1    1    2    0    0 -9.2881011871e+02 +1.6905139002e+03 +5.2865632895e+02 2.0000007500e+03 5.1100000000e-04 0.0000e+00 -1.0000e+00
       11  1    1    2    0    0 +9.2881011871e+02 -1.6905139002e+03 -5.2865632895e+02 2.0000007500e+03 5.1100000000e-04 0.0000e+00 1.0000e+00
</event>
<event>
 4   1995 +1.7975000e+00 4.00000100e+01 7.81860800e-03 1.35328700e-01
  5000521 -1    0    0    0    0 +0.0000000000e+00 +0.0000000000e+00 +1.7320509698e+00 2.0000007500e+03 2.0000000000e+03 0.0000e+00 1.0000e+00
 -5000521 -1    0    0    0    0 -0.0000000000e+00 -0.0000000000e+00 -1.7320509698e+00 2.0000007500e+03 2.0000000000e+03 0.0000e+00 -1.0000e+00
      -11  1    1    2    0    0 -4.9382320740e+02 -1.6188194899e+03 -1.0656289674e+03 2.0000007500e+03 5.1100000000e-04 0.0000e+00 -1.0000e+00
       11  1    1    2    0    0 +4.9382320740e+02 +1.6188194899e+03 +1.0656289674e+03 2.0000007500e+03 5.1100000000e-04 0.0000e+00 1.0000e+00
</event>
<event>
 4   1995 +1.7975000e+00 4.00000100e+01 7.81860800e-03 1.35328700e-01
  5000521 -1    0    0    0    0 +0.0000000000e+00 +0.0000000000e+00 +1.7320509698e+00 2.0000007500e+03 2.0000000000e+03 0.0000e+00 1.0000e+00
 -5000521 -1    0    0    0    0 -0.0000000000e+00 -0.0000000000e+00 -1.7320509698e+00 2.0000007500e+03 2.0000000000e+03 0.0000e+00 -1.0000e+00
      -11  1    1    2    0    0 -7.6487093066e+02 -1.1422866978e+03 +1.4526377927e+03 2.0000007500e+03 5.1100000000e-04 0.0000e+00 1.0000e+00
       11  1    1    2    0    0 +7.6487093066e+02 +1.1422866978e+03 -1.4526377927e+03 2.0000007500e+03 5.1100000000e-04 0.0000e+00 -1.0000e+00
</event>
<event>
 4   1995 +1.7975000e+00 4.00000100e+01 7.81860800e-03 1.35328700e-01
  5000521 -1    0    0    0    0 +0.0000000000e+00 +0.0000000000e+00 +1.7320509698e+00 2.0000007500e+03 2.0000000000e+03 0.0000e+00 1.0000e+00
 -5000521 -1    0    0    0    0 -0.0000000000e+00 -0.0000000000e+00 -1.7320509698e+00 2.0000007500e+03 2.0000000000e+03 0.0000e+00 -1.0000e+00
      -11  1    1    2    0    0 -1.4383853449e+03 -9.5934453528e+02 -1.0053400717e+03 2.0000007500e+03 5.1100000000e-04 0.0000e+00 -1.0000e+00
       11  1    1    2    0    0 +1.4383853449e+03 +9.5934453528e+02 +1.0053400717e+03 2.0000007500e+03 5.1100000000e-04 0.0000e+00 1.0000e+00
</event>
<event>
 4   1995 +1.7975000e+00 4.00000100e+01 7.81860800e-03 1.35328700e-01
  5000521 -1    0    0    0    0 +0.0000000000e+00 +0.0000000000e+00 +1.7320509698e+00 2.0000007500e+03 2.0000000000e+03 0.0000e+00 1.0000e+00
 -5000521 -1    0    0    0    0 -0.0000000000e+00 -0.0000000000e+00 -1.7320509698e+00 2.0000007500e+03 2.0000000000e+03 0.0000e+00 -1.0000e+00
      -11  1    1    2    0    0 -1.2925457597e+03 -1.4372375394e+03 +5.1349460737e+02 2.0000007500e+03 5.1100000000e-04 0.0000e+00 1.0000e+00
       11  1    1    2    0    0 +1.2925457597e+03 +1.4372375394e+03 -5.1349460737e+02 2.0000007500e+03 5.1100000000e-04 0.0000e+00 -1.0000e+00
</event>
<event>
 4   1995 +1.7975000e+00 4.00000100e+01 7.81860800e-03 1.35328700e-01
  5000521 -1    0    0    0    0 +0.0000000000e+00 +0.0000000000e+00 +1.7320509698e+00 2.0000007500e+03 2.0000000000e+03 0.0000e+00 1.0000e+00
 -5000521 -1    0    0    0    0 -0.0000000000e+00 -0.0000000000e+00 -1.7320509698e+00 2.0000007500e+03 2.0000000000e+03 0.0000e+00 -1.0000e+00
      -11  1    1    2    0    0 -3.9455189786e+02 -6.0233369798e+02 -1.8658847536e+03 2.0000007500e+03 5.1100000000e-04 0.0000e+00 -1.0000e+00
       11  1    1    2    0    0 +3.9455189786e+02 +6.0233369798e+02 +1.8658847536e+03 2.0000007500e+03 5.1100000000e-04 0.0000e+00 1.0000e+00
</event>
<event>
 4   1995 +1.7975000e+00 4.00000100e+01 7.81860800e-03 1.35328700e-01
  5000521 -1    0    0    0    0 +0.0000000000e+00 +0.0000000000e+00 +1.7320509698e+00 2.0000007500e+03 2.0000000000e+03 0.0000e+00 -1.0000e+00
 -5000521 -1    0    0    0    0 -0.0000000000e+00 -0.0000000000e+00 -1.7320509698e+00 2.0000007500e+03 2.0000000000e+03 0.0000e+00 1.0000e+00
      -11  1    1    2    0    0 +6.6394224994e+02 -1.6478053766e+03 +9.1865179849e+02 2.0000007500e+03 5.1100000000e-04 0.0000e+00 -1.0000e+00
       11  1    1    2    0    0 -6.6394224994e+02 +1.6478053766e+03 -9.1865179849e+02 2.0000007500e+03 5.1100000000e-04 0.0000e+00 1.0000e+00
</event>
</LesHouchesEvents>
